                         Program Version 4.0.1 -  RELEASE  -
|  1> %pal nprocs 2 end
|  2> %maxcore 1000
|  3> ! b3lyp TIGHTSCF
|  4> ! cc-pvdz def2/J RIJCOSX
|  5> ! Opt
|  6>
|  7> %geom
|  8> maxiter 60
|  9> TolE 1e-4
| 10> TolRMSG 2e-3
| 11> TolMaxG 3e-3
| 12> TolRMSD 2e-2
| 13> TolMaxD 3e-2
| 14> end
| 15>
| 16> *xyz 0 1
| 17> C -1.546 0.7312 0.6713
| 18> H -1.7339 0.4732 1.7158
| 19> H -1.6419 1.8112 0.5401
| 20> H -0.5364 0.4191 0.3951
| 21> H -2.2718 0.2212 0.0341
| 22> *
| 23>
| 24>
| 25>                          ****END OF INPUT****
 Total Charge           Charge          ....    0
 Multiplicity           Mult            ....    1
 Number of Electrons    NEL             ....   10
FINAL SINGLE POINT ENERGY       -40.480266480673
FINAL SINGLE POINT ENERGY       -40.480429764221
                    ***********************HURRAY********************

CARTESIAN COORDINATES (ANGSTROEM)
---------------------------------
  C     -1.546261    0.731856    0.671411
  H     -1.735658    0.470847    1.723567
  H     -1.642775    1.820288    0.539112
  H     -0.529746    0.415882    0.392334
  H     -2.275560    0.217028    0.029975

 Multiplicity           Mult            ....    1
 Number of Electrons    NEL             ....   10
 Basis Dimension        Dim             ....   34

ORBITAL ENERGIES
----------------

  NO   OCC          E(Eh)            E(eV)
   0   2.0000     -10.171049      -276.7683
   1   2.0000      -0.686817       -18.6892
   2   2.0000      -0.385407       -10.4875
   3   2.0000      -0.385075       -10.4784
   4   2.0000      -0.384813       -10.4713
   5   0.0000       0.075677         2.0593
   6   0.0000       0.144716         3.9379
   7   0.0000       0.145705         3.9648
   8   0.0000       0.146600         3.9892
   9   0.0000       0.415208        11.2984

MULLIKEN ATOMIC CHARGES
-----------------------
   0 C :   -0.124356
   1 H :    0.030996
   2 H :    0.032789
   3 H :    0.030036
   4 H :    0.030536
Sum of atomic charges:    0.0000000

LOEWDIN ATOMIC CHARGES
----------------------
   0 C :   -0.121162
   1 H :    0.030299
   2 H :    0.030461
   3 H :    0.030232
   4 H :    0.030170

  Mayer bond orders larger than 0.1
B(  0-C ,  1-H ) :   0.9979 B(  0-C ,  2-H ) :   0.9976 B(  0-C ,  3-H ) :   0.9982
B(  0-C ,  4-H ) :   0.9977

FINAL SINGLE POINT ENERGY       -40.480429212044

DIPOLE MOMENT
-------------
                                X             Y             Z
Electronic contribution:     -0.00308      -0.00034      -0.00185
Nuclear contribution   :      0.00092      -0.00237      -0.00046
                        -----------------------------------------
Total Dipole Moment    :     -0.00216      -0.00272      -0.00232
                        -----------------------------------------
Magnitude (a.u.)       :      0.00417
Magnitude (Debye)      :      0.01061

                             ****ORCA TERMINATED NORMALLY****
TOTAL RUN TIME: 0 days 0 hours 3 minutes 51 seconds 759 msec
