                         Program Version 4.0.1 -  RELEASE  -
|  1> %pal nprocs 2 end
|  2> %maxcore 1000
|  3> ! b3lyp TIGHTSCF
|  4> ! cc-pvdz def2/J RIJCOSX
|  5> ! Opt
|  6>
|  7> %geom
|  8> maxiter 60
|  9> TolE 1e-4
| 10> TolRMSG 2e-3
| 11> TolMaxG 3e-3
| 12> TolRMSD 2e-2
| 13> TolMaxD 3e-2
| 14> end
| 15>
| 16> *xyz 0 1
| 17> C 0.7809 1.3007 -0.1378
| 18> C 2.1032 0.9548 -0.4158
| 19> C 2.5364 -0.3569 -0.2225
| 20> C 1.645 -1.3246 0.2408
| 21> C 0.3225 -0.9788 0.5182
| 22> C -0.1077 0.3354 0.3358
| 23> H 0.4441 2.3232 -0.2859
| 24> H 2.7965 1.7077 -0.781
| 25> H 3.5671 -0.6261 -0.4375
| 26> H 1.9813 -2.3476 0.387
| 27> H -0.3715 -1.7323 0.8811
| 28> H -1.1372 0.6056 0.5551
| 29> *
| 30>
| 31>
| 32>                          ****END OF INPUT****
 Total Charge           Charge          ....    0
 Multiplicity           Mult            ....    1
 Number of Electrons    NEL             ....   42
FINAL SINGLE POINT ENERGY      -232.108583170901
FINAL SINGLE POINT ENERGY      -232.108840012097
                    ***********************HURRAY********************

CARTESIAN COORDINATES (ANGSTROEM)
---------------------------------
  C      0.780258    1.305374   -0.135197
  C      2.106501    0.958133   -0.414123
  C      2.540035   -0.358691   -0.225030
  C      1.646493   -1.328537    0.241380
  C      0.320240   -0.981295    0.520293
  C     -0.113233    0.335569    0.331426
  H      0.440093    2.333033   -0.287047
  H      2.803671    1.715592   -0.780438
  H      3.574848   -0.631498   -0.447241
  H      1.986608   -2.356245    0.393006
  H     -0.376986   -1.738800    0.886402
  H     -1.147930    0.608465    0.554068

 Multiplicity           Mult            ....    1
 Number of Electrons    NEL             ....   42
 Basis Dimension        Dim             ....  114

ORBITAL ENERGIES
----------------

  NO   OCC          E(Eh)            E(eV)
   0   2.0000     -10.188248      -277.2363
   1   2.0000     -10.188073      -277.2316
   2   2.0000     -10.187993      -277.2294
   3   2.0000     -10.187589      -277.2184
   4   2.0000     -10.187513      -277.2163
   5   2.0000     -10.187331      -277.2114
   6   2.0000      -0.848705       -23.0944
   7   2.0000      -0.741496       -20.1771
   8   2.0000      -0.741412       -20.1748
   9   2.0000      -0.597917       -16.2702
  10   2.0000      -0.597796       -16.2668
  11   2.0000      -0.516581       -14.0569
  12   2.0000      -0.456549       -12.4233
  13   2.0000      -0.441244       -12.0068
  14   2.0000      -0.416478       -11.3329
  15   2.0000      -0.416356       -11.3296
  16   2.0000      -0.362486        -9.8637
  17   2.0000      -0.340089        -9.2543
  18   2.0000      -0.339871        -9.2484
  19   2.0000      -0.249913        -6.8005
  20   2.0000      -0.249700        -6.7947
  21   0.0000      -0.003404        -0.0926
  22   0.0000      -0.003045        -0.0828
  23   0.0000       0.060086         1.6350
  24   0.0000       0.100215         2.7270
  25   0.0000       0.101312         2.7568

MULLIKEN ATOMIC CHARGES
-----------------------
   0 C :    0.034324
   1 C :    0.024615
   2 C :    0.032776
   3 C :    0.034324
   4 C :    0.024624
   5 C :    0.032778
   6 H :   -0.031994
   7 H :   -0.028146
   8 H :   -0.031575
   9 H :   -0.031995
  10 H :   -0.028150
  11 H :   -0.031580
Sum of atomic charges:   -0.0000000

LOEWDIN ATOMIC CHARGES
----------------------
   0 C :   -0.026132
   1 C :   -0.026753
   2 C :   -0.026080
   3 C :   -0.026132
   4 C :   -0.026753
   5 C :   -0.026079
   6 H :    0.025988
   7 H :    0.026780
   8 H :    0.026197
   9 H :    0.025988
  10 H :    0.026780
  11 H :    0.026197

  Mayer bond orders larger than 0.1
B(  0-C ,  1-C ) :   1.4619 B(  0-C ,  5-C ) :   1.4628 B(  0-C ,  6-H ) :   0.9416
B(  1-C ,  2-C ) :   1.4621 B(  1-C ,  7-H ) :   0.9412 B(  2-C ,  3-C ) :   1.4628
B(  2-C ,  8-H ) :   0.9411 B(  3-C ,  4-C ) :   1.4619 B(  3-C ,  9-H ) :   0.9416
B(  4-C ,  5-C ) :   1.4621 B(  4-C , 10-H ) :   0.9412 B(  5-C , 11-H ) :   0.9411

FINAL SINGLE POINT ENERGY      -232.108839404424

DIPOLE MOMENT
-------------
                                X             Y             Z
Electronic contribution:     -0.00001       0.00001      -0.00000
Nuclear contribution   :      0.00001      -0.00001       0.00000
                        -----------------------------------------
Total Dipole Moment    :     -0.00000       0.00000       0.00000
                        -----------------------------------------
Magnitude (a.u.)       :      0.00000
Magnitude (Debye)      :      0.00000

                             ****ORCA TERMINATED NORMALLY****
TOTAL RUN TIME: 0 days 0 hours 5 minutes 9 seconds 949 msec
