                         Program Version 4.0.1 -  RELEASE  -
|  1> %pal nprocs 2 end
|  2> %maxcore 1000
|  3> ! b3lyp TIGHTSCF
|  4> ! cc-pvdz def2/J RIJCOSX
|  5> ! Opt
|  6>
|  7> %geom
|  8> maxiter 60
|  9> TolE 1e-4
| 10> TolRMSG 2e-3
| 11> TolMaxG 3e-3
| 12> TolRMSD 2e-2
| 13> TolMaxD 3e-2
| 14> end
| 15>
| 16> *xyz 0 1
| 17> C 0.8245 1.2316 -0.142
| 18> C 2.1142 1.0499 -0.4556
| 19> C 0.2268 -1.0549 0.5909
| 20> C -0.1051 0.2302 0.3712
| 21> C -1.5027 0.7253 0.6818
| 22> C -2.6053 0.1195 -0.1725
| 23> O -2.469 -0.7648 -1.0115
| 24> H 0.4204 2.2312 -0.3021
| 25> H 2.7046 1.8755 -0.8417
| 26> H -0.5039 -1.7657 0.9678
| 27> H -1.7456 0.5036 1.728
| 28> H -1.5816 1.8121 0.5679
| 29> H -3.6105 0.5328 0.03
| 30> H 2.6213 0.0984 -0.348
| 31> H 1.2114 -1.4578 0.382
| 32> *
| 33>
| 34>
| 35>                          ****END OF INPUT****
 Total Charge           Charge          ....    0
 Multiplicity           Mult            ....    1
 Number of Electrons    NEL             ....   52
FINAL SINGLE POINT ENERGY      -308.438478927454
FINAL SINGLE POINT ENERGY      -308.440064829813
FINAL SINGLE POINT ENERGY      -308.439430346857
FINAL SINGLE POINT ENERGY      -308.440436140281
FINAL SINGLE POINT ENERGY      -308.440575325595
FINAL SINGLE POINT ENERGY      -308.440934650467
FINAL SINGLE POINT ENERGY      -308.441294599482
FINAL SINGLE POINT ENERGY      -308.441630426801
FINAL SINGLE POINT ENERGY      -308.441942809740
FINAL SINGLE POINT ENERGY      -308.442660333459
FINAL SINGLE POINT ENERGY      -308.443327362499
FINAL SINGLE POINT ENERGY      -308.443987870960
FINAL SINGLE POINT ENERGY      -308.444238776879
FINAL SINGLE POINT ENERGY      -308.444419256775
                    ***********************HURRAY********************

CARTESIAN COORDINATES (ANGSTROEM)
---------------------------------
  C      0.652560    0.935712   -0.513452
  C      1.972017    1.160328   -0.441491
  C      0.380424   -1.150556    0.794236
  C     -0.105965    0.030764    0.380346
  C     -1.479242    0.500683    0.811369
  C     -2.517422    0.595912   -0.291675
  O     -2.326257    0.343392   -1.456980
  H      0.060540    1.465090   -1.268225
  H      2.471785    1.832711   -1.143676
  H     -0.189572   -1.794706    1.469436
  H     -1.900848   -0.159740    1.590918
  H     -1.433154    1.505061    1.279499
  H     -3.525581    0.940285    0.066499
  H      2.592832    0.682491    0.322901
  H      1.347380   -1.520525    0.446497

 Multiplicity           Mult            ....    1
 Number of Electrons    NEL             ....   52
 Basis Dimension        Dim             ....  138

ORBITAL ENERGIES
----------------

  NO   OCC          E(Eh)            E(eV)
   0   2.0000     -19.145629      -520.9790
   1   2.0000     -10.282387      -279.7980
   2   2.0000     -10.207985      -277.7734
   3   2.0000     -10.204059      -277.6666
   4   2.0000     -10.191504      -277.3249
   5   2.0000     -10.185458      -277.1604
   6   2.0000     -10.184053      -277.1222
   7   2.0000      -1.053390       -28.6642
   8   2.0000      -0.826904       -22.5012
   9   2.0000      -0.756292       -20.5798
  10   2.0000      -0.714247       -19.4356
  11   2.0000      -0.618328       -16.8256
  12   2.0000      -0.574920       -15.6444
  13   2.0000      -0.514835       -14.0094
  14   2.0000      -0.484457       -13.1827
  15   2.0000      -0.477380       -12.9902
  16   2.0000      -0.455934       -12.4066
  17   2.0000      -0.436764       -11.8849
  18   2.0000      -0.418108       -11.3773
  19   2.0000      -0.410006       -11.1568
  20   2.0000      -0.377851       -10.2818
  21   2.0000      -0.359224        -9.7750
  22   2.0000      -0.341062        -9.2808
  23   2.0000      -0.301115        -8.1938
  24   2.0000      -0.259000        -7.0478
  25   2.0000      -0.237000        -6.4491
  26   0.0000      -0.027642        -0.7522
  27   0.0000      -0.021562        -0.5867
  28   0.0000       0.040614         1.1052
  29   0.0000       0.070182         1.9098
  30   0.0000       0.092503         2.5171

MULLIKEN ATOMIC CHARGES
-----------------------
   0 C :   -0.034020
   1 C :    0.031148
   2 C :    0.056733
   3 C :   -0.120077
   4 C :   -0.007695
   5 C :    0.156875
   6 O :   -0.181426
   7 H :   -0.006064
   8 H :    0.018526
   9 H :    0.003086
  10 H :    0.031283
  11 H :    0.044497
  12 H :   -0.016238
  13 H :    0.011479
  14 H :    0.011893
Sum of atomic charges:   -0.0000000

LOEWDIN ATOMIC CHARGES
----------------------
   0 C :   -0.025607
   1 C :   -0.039528
   2 C :   -0.040697
   3 C :   -0.029776
   4 C :   -0.065635
   5 C :   -0.018889
   6 O :    0.002226
   7 H :    0.029328
   8 H :    0.026747
   9 H :    0.020830
  10 H :    0.048958
  11 H :    0.050044
  12 H :   -0.004697
  13 H :    0.022220
  14 H :    0.024476

  Mayer bond orders larger than 0.1
B(  0-C ,  1-C ) :   2.0055 B(  0-C ,  3-C ) :   1.0709 B(  0-C ,  7-H ) :   0.9336
B(  1-C ,  8-H ) :   0.9335 B(  1-C , 13-H ) :   0.9372 B(  2-C ,  3-C ) :   1.9973
B(  2-C ,  9-H ) :   0.9139 B(  2-C , 14-H ) :   0.9211 B(  3-C ,  4-C ) :   1.0564
B(  4-C ,  5-C ) :   0.9994 B(  4-C , 10-H ) :   0.9106 B(  4-C , 11-H ) :   0.9067
B(  5-C ,  6-O ) :   2.2244 B(  5-C , 12-H ) :   0.9129

FINAL SINGLE POINT ENERGY      -308.444429128834

DIPOLE MOMENT
-------------
                                X             Y             Z
Electronic contribution:     -3.45990       0.04762      -2.59813
Nuclear contribution   :      3.41301       0.16316       3.48235
                        -----------------------------------------
Total Dipole Moment    :     -0.04688       0.21078       0.88422
                        -----------------------------------------
Magnitude (a.u.)       :      0.91021
Magnitude (Debye)      :      2.31356

                             ****ORCA TERMINATED NORMALLY****
TOTAL RUN TIME: 0 days 0 hours 21 minutes 46 seconds 830 msec
