                         Program Version 4.0.1 -  RELEASE  -
|  1> %pal nprocs 2 end
|  2> %maxcore 1000
|  3> ! b3lyp TIGHTSCF
|  4> ! cc-pvdz def2/J RIJCOSX
|  5> ! Opt
|  6>
|  7> %geom
|  8> maxiter 60
|  9> TolE 1e-4
| 10> TolRMSG 2e-3
| 11> TolMaxG 3e-3
| 12> TolRMSD 2e-2
| 13> TolMaxD 3e-2
| 14> end
| 15>
| 16> *xyz 0 1
| 17> C 0.7369 1.1963 -0.0853
| 18> C 2.1109 0.8551 -0.3844
| 19> C 2.6868 -0.3474 -0.2669
| 20> C -0.2163 0.3665 0.3679
| 21> C -1.6145 0.7997 0.6944
| 22> C -2.6565 0.085 -0.146
| 23> O -2.4433 -0.864 -0.894
| 24> H 0.4959 2.2475 -0.2401
| 25> H 2.7214 1.6837 -0.7419
| 26> H 3.7327 -0.4807 -0.5256
| 27> H -1.8315 0.5892 1.7466
| 28> H -1.7463 1.875 0.5309
| 29> H -3.6846 0.4666 -0.0193
| 30> H 2.1526 -1.2262 0.0759
| 31> H -0.0051 -0.6885 0.525
| 32> *
| 33>
| 34>
| 35>                          ****END OF INPUT****
 Total Charge           Charge          ....    0
 Multiplicity           Mult            ....    1
 Number of Electrons    NEL             ....   52
FINAL SINGLE POINT ENERGY      -308.443530083229
FINAL SINGLE POINT ENERGY      -308.445305303317
FINAL SINGLE POINT ENERGY      -308.444796243578
FINAL SINGLE POINT ENERGY      -308.445810962669
FINAL SINGLE POINT ENERGY      -308.445865703878
FINAL SINGLE POINT ENERGY      -308.445954738588
FINAL SINGLE POINT ENERGY      -308.445999436963
FINAL SINGLE POINT ENERGY      -308.446148773539
FINAL SINGLE POINT ENERGY      -308.446400474637
FINAL SINGLE POINT ENERGY      -308.446484794418
                    ***********************HURRAY********************

CARTESIAN COORDINATES (ANGSTROEM)
---------------------------------
  C      0.778146    1.209866   -0.053530
  C      2.146711    0.837611   -0.440154
  C      2.772185   -0.302901   -0.107647
  C     -0.237443    0.353271    0.147393
  C     -1.604856    0.763073    0.605840
  C     -2.760058    0.078244   -0.097953
  O     -2.653352   -0.804560   -0.915539
  H      0.588336    2.285814    0.061358
  H      2.691915    1.582106   -1.033626
  H      3.784421   -0.517839   -0.458118
  H     -1.748226    0.533367    1.685084
  H     -1.753903    1.856652    0.527897
  H     -3.769720    0.451719    0.225684
  H      2.293917   -1.053112    0.529185
  H     -0.088973   -0.715509   -0.038675

 Multiplicity           Mult            ....    1
 Number of Electrons    NEL             ....   52
 Basis Dimension        Dim             ....  138

ORBITAL ENERGIES
----------------

  NO   OCC          E(Eh)            E(eV)
   0   2.0000     -19.143722      -520.9272
   1   2.0000     -10.280027      -279.7338
   2   2.0000     -10.208543      -277.7886
   3   2.0000     -10.194614      -277.4095
   4   2.0000     -10.194127      -277.3963
   5   2.0000     -10.193161      -277.3700
   6   2.0000     -10.184646      -277.1383
   7   2.0000      -1.051056       -28.6007
   8   2.0000      -0.818107       -22.2618
   9   2.0000      -0.773358       -21.0441
  10   2.0000      -0.707405       -19.2495
  11   2.0000      -0.618867       -16.8402
  12   2.0000      -0.563662       -15.3380
  13   2.0000      -0.532882       -14.5004
  14   2.0000      -0.480170       -13.0661
  15   2.0000      -0.478084       -13.0093
  16   2.0000      -0.454174       -12.3587
  17   2.0000      -0.437597       -11.9076
  18   2.0000      -0.420322       -11.4375
  19   2.0000      -0.404931       -11.0187
  20   2.0000      -0.370147       -10.0722
  21   2.0000      -0.358227        -9.7479
  22   2.0000      -0.348039        -9.4706
  23   2.0000      -0.308008        -8.3813
  24   2.0000      -0.257762        -7.0141
  25   2.0000      -0.231144        -6.2898
  26   0.0000      -0.031699        -0.8626
  27   0.0000      -0.021642        -0.5889
  28   0.0000       0.056123         1.5272
  29   0.0000       0.072510         1.9731
  30   0.0000       0.080332         2.1859

MULLIKEN ATOMIC CHARGES
-----------------------
   0 C :    0.012991
   1 C :   -0.041990
   2 C :    0.032627
   3 C :   -0.004949
   4 C :   -0.028602
   5 C :    0.153660
   6 O :   -0.180835
   7 H :   -0.024612
   8 H :   -0.011860
   9 H :    0.017040
  10 H :    0.057119
  11 H :    0.035688
  12 H :   -0.020395
  13 H :    0.012075
  14 H :   -0.007958
Sum of atomic charges:   -0.0000000

LOEWDIN ATOMIC CHARGES
----------------------
   0 C :   -0.040412
   1 C :   -0.037374
   2 C :   -0.039237
   3 C :   -0.012255
   4 C :   -0.079300
   5 C :   -0.020167
   6 O :    0.001473
   7 H :    0.024801
   8 H :    0.029972
   9 H :    0.026170
  10 H :    0.056518
  11 H :    0.047346
  12 H :   -0.006307
  13 H :    0.021523
  14 H :    0.027251

  Mayer bond orders larger than 0.1
B(  0-C ,  1-C ) :   1.1342 B(  0-C ,  3-C ) :   1.8705 B(  0-C ,  7-H ) :   0.9325
B(  1-C ,  2-C ) :   1.9948 B(  1-C ,  8-H ) :   0.9344 B(  2-C ,  9-H ) :   0.9331
B(  2-C , 13-H ) :   0.9354 B(  3-C ,  4-C ) :   1.0599 B(  3-C , 14-H ) :   0.9447
B(  4-C ,  5-C ) :   1.0045 B(  4-C , 10-H ) :   0.9029 B(  4-C , 11-H ) :   0.9211
B(  5-C ,  6-O ) :   2.2387 B(  5-C , 12-H ) :   0.9136

FINAL SINGLE POINT ENERGY      -308.446491638813

DIPOLE MOMENT
-------------
                                X             Y             Z
Electronic contribution:     -3.90810      -1.35310      -1.70769
Nuclear contribution   :      3.96984       2.03433       2.36960
                        -----------------------------------------
Total Dipole Moment    :      0.06174       0.68123       0.66191
                        -----------------------------------------
Magnitude (a.u.)       :      0.95185
Magnitude (Debye)      :      2.41940

                             ****ORCA TERMINATED NORMALLY****
TOTAL RUN TIME: 0 days 0 hours 15 minutes 17 seconds 404 msec
