                         Program Version 4.0.1 -  RELEASE  -
|  1> %pal nprocs 2 end
|  2> %maxcore 1000
|  3> ! b3lyp TIGHTSCF
|  4> ! cc-pvdz def2/J RIJCOSX
|  5> ! Opt
|  6>
|  7> %geom
|  8> maxiter 60
|  9> TolE 1e-4
| 10> TolRMSG 2e-3
| 11> TolMaxG 3e-3
| 12> TolRMSD 2e-2
| 13> TolMaxD 3e-2
| 14> end
| 15>
| 16> *xyz 0 1
| 17> C 0.8105 1.2893 -0.145
| 18> C 2.0781 0.9621 -0.4101
| 19> H 0.4518 2.3035 -0.2906
| 20> H 2.7822 1.7019 -0.7778
| 21> H 0.1064 0.5495 0.2227
| 22> H 2.4368 -0.0521 -0.2645
| 23> *
| 24>
| 25>
| 26>                          ****END OF INPUT****
 Total Charge           Charge          ....    0
 Multiplicity           Mult            ....    1
 Number of Electrons    NEL             ....   16
FINAL SINGLE POINT ENERGY       -78.532835985224
FINAL SINGLE POINT ENERGY       -78.533076213132
                    ***********************HURRAY********************

CARTESIAN COORDINATES (ANGSTROEM)
---------------------------------
  C      0.811482    1.289405   -0.143906
  C      2.077118    0.961995   -0.411194
  H      0.442874    2.309950   -0.290103
  H      2.792524    1.703443   -0.780588
  H      0.096077    0.547956    0.225489
  H      2.445725   -0.058550   -0.264997

 Multiplicity           Mult            ....    1
 Number of Electrons    NEL             ....   16
 Basis Dimension        Dim             ....   48

ORBITAL ENERGIES
----------------

  NO   OCC          E(Eh)            E(eV)
   0   2.0000     -10.186460      -277.1877
   1   2.0000     -10.185675      -277.1663
   2   2.0000      -0.756047       -20.5731
   3   2.0000      -0.573357       -15.6018
   4   2.0000      -0.462850       -12.5948
   5   2.0000      -0.414067       -11.2673
   6   2.0000      -0.350676        -9.5424
   7   2.0000      -0.270068        -7.3489
   8   0.0000       0.010575         0.2878
   9   0.0000       0.083049         2.2599
  10   0.0000       0.105890         2.8814
  11   0.0000       0.114288         3.1099
  12   0.0000       0.187491         5.1019

MULLIKEN ATOMIC CHARGES
-----------------------
   0 C :   -0.043257
   1 C :   -0.043257
   2 H :    0.019681
   3 H :    0.023575
   4 H :    0.023575
   5 H :    0.019682
Sum of atomic charges:   -0.0000000

LOEWDIN ATOMIC CHARGES
----------------------
   0 C :   -0.049867
   1 C :   -0.049867
   2 H :    0.024576
   3 H :    0.025291
   4 H :    0.025291
   5 H :    0.024576

  Mayer bond orders larger than 0.1
B(  0-C ,  1-C ) :   2.1271 B(  0-C ,  2-H ) :   0.9527 B(  0-C ,  4-H ) :   0.9524
B(  1-C ,  3-H ) :   0.9524 B(  1-C ,  5-H ) :   0.9527

FINAL SINGLE POINT ENERGY       -78.533099834411

DIPOLE MOMENT
-------------
                                X             Y             Z
Electronic contribution:     -0.00000       0.00000       0.00000
Nuclear contribution   :     -0.00000      -0.00000       0.00000
                        -----------------------------------------
Total Dipole Moment    :     -0.00000       0.00000       0.00000
                        -----------------------------------------
Magnitude (a.u.)       :      0.00000
Magnitude (Debye)      :      0.00000

                             ****ORCA TERMINATED NORMALLY****
TOTAL RUN TIME: 0 days 0 hours 4 minutes 5 seconds 228 msec
