                         Program Version 4.0.1 -  RELEASE  -
|  1> %pal nprocs 2 end
|  2> %maxcore 1000
|  3> ! b3lyp TIGHTSCF
|  4> ! cc-pvdz def2/J RIJCOSX
|  5> ! Opt
|  6>
|  7> %geom
|  8> maxiter 60
|  9> TolE 1e-4
| 10> TolRMSG 2e-3
| 11> TolMaxG 3e-3
| 12> TolRMSD 2e-2
| 13> TolMaxD 3e-2
| 14> end
| 15>
| 16> *xyz 0 1
| 17> C 0.7348 1.4131 -0.1232
| 18> C 1.5655 -1.4699 0.1998
| 19> C 0.3546 -0.9593 0.4602
| 20> C -0.0689 0.4293 0.3186
| 21> C -1.4934 0.7382 0.7283
| 22> C -2.5706 0.0905 -0.1281
| 23> O -2.3915 -0.7083 -1.0412
| 24> H 0.3842 2.4373 -0.2072
| 25> H 1.7474 -2.5322 0.3311
| 26> H -0.4132 -1.658 0.7939
| 27> H -1.6593 0.4184 1.7643
| 28> H -1.6829 1.8183 0.6963
| 29> H -3.5998 0.3854 0.1445
| 30> H 1.7622 1.2427 -0.4249
| 31> H 2.3998 -0.8746 -0.1504
| 32> *
| 33>
| 34>
| 35>                          ****END OF INPUT****
 Total Charge           Charge          ....    0
 Multiplicity           Mult            ....    1
 Number of Electrons    NEL             ....   52
FINAL SINGLE POINT ENERGY      -308.441267574663
FINAL SINGLE POINT ENERGY      -308.442707235764
FINAL SINGLE POINT ENERGY      -308.442275584337
FINAL SINGLE POINT ENERGY      -308.442918232082
FINAL SINGLE POINT ENERGY      -308.443050091867
FINAL SINGLE POINT ENERGY      -308.443373870607
FINAL SINGLE POINT ENERGY      -308.443656708882
FINAL SINGLE POINT ENERGY      -308.443795285800
FINAL SINGLE POINT ENERGY      -308.444096128463
FINAL SINGLE POINT ENERGY      -308.444315575463
                    ***********************HURRAY********************

CARTESIAN COORDINATES (ANGSTROEM)
---------------------------------
  C      0.689237    1.372788   -0.329582
  C      1.610772   -1.429764    0.460233
  C      0.359199   -1.021834    0.209914
  C     -0.075672    0.393093    0.180604
  C     -1.440635    0.694814    0.758048
  C     -2.626232    0.158858   -0.024755
  O     -2.561245   -0.535956   -1.011105
  H      0.360551    2.415388   -0.314725
  H      1.873675   -2.490523    0.458818
  H     -0.426699   -1.762511    0.028948
  H     -1.546001    0.279401    1.781326
  H     -1.594674    1.782894    0.872447
  H     -3.617597    0.478871    0.398394
  H      1.654863    1.152666   -0.789497
  H      2.409357   -0.717285    0.682932

 Multiplicity           Mult            ....    1
 Number of Electrons    NEL             ....   52
 Basis Dimension        Dim             ....  138

ORBITAL ENERGIES
----------------

  NO   OCC          E(Eh)            E(eV)
   0   2.0000     -19.145708      -520.9812
   1   2.0000     -10.282647      -279.8051
   2   2.0000     -10.207596      -277.7628
   3   2.0000     -10.203747      -277.6581
   4   2.0000     -10.191407      -277.3223
   5   2.0000     -10.185190      -277.1531
   6   2.0000     -10.183980      -277.1202
   7   2.0000      -1.052912       -28.6512
   8   2.0000      -0.827128       -22.5073
   9   2.0000      -0.756512       -20.5857
  10   2.0000      -0.714020       -19.4295
  11   2.0000      -0.618749       -16.8370
  12   2.0000      -0.574594       -15.6355
  13   2.0000      -0.514717       -14.0062
  14   2.0000      -0.483903       -13.1677
  15   2.0000      -0.478438       -13.0189
  16   2.0000      -0.454876       -12.3778
  17   2.0000      -0.436625       -11.8812
  18   2.0000      -0.418607       -11.3909
  19   2.0000      -0.409732       -11.1494
  20   2.0000      -0.377834       -10.2814
  21   2.0000      -0.358654        -9.7595
  22   2.0000      -0.341424        -9.2906
  23   2.0000      -0.301883        -8.2147
  24   2.0000      -0.258968        -7.0469
  25   2.0000      -0.236351        -6.4314
  26   0.0000      -0.027811        -0.7568
  27   0.0000      -0.021580        -0.5872
  28   0.0000       0.040655         1.1063
  29   0.0000       0.071265         1.9392
  30   0.0000       0.091992         2.5032

MULLIKEN ATOMIC CHARGES
-----------------------
   0 C :    0.055313
   1 C :    0.032599
   2 C :   -0.032059
   3 C :   -0.120472
   4 C :   -0.010775
   5 C :    0.155979
   6 O :   -0.181364
   7 H :    0.003585
   8 H :    0.017420
   9 H :   -0.006308
  10 H :    0.044971
  11 H :    0.031852
  12 H :   -0.015265
  13 H :    0.014230
  14 H :    0.010294
Sum of atomic charges:   -0.0000000

LOEWDIN ATOMIC CHARGES
----------------------
   0 C :   -0.040934
   1 C :   -0.038670
   2 C :   -0.025127
   3 C :   -0.030203
   4 C :   -0.066174
   5 C :   -0.018704
   6 O :    0.001753
   7 H :    0.020932
   8 H :    0.026329
   9 H :    0.029389
  10 H :    0.050950
  11 H :    0.048344
  12 H :   -0.004685
  13 H :    0.024775
  14 H :    0.022027

  Mayer bond orders larger than 0.1
B(  0-C ,  3-C ) :   1.9968 B(  0-C ,  7-H ) :   0.9140 B(  0-C , 13-H ) :   0.9201
B(  1-C ,  2-C ) :   2.0024 B(  1-C ,  8-H ) :   0.9353 B(  1-C , 14-H ) :   0.9366
B(  2-C ,  3-C ) :   1.0725 B(  2-C ,  9-H ) :   0.9345 B(  3-C ,  4-C ) :   1.0558
B(  4-C ,  5-C ) :   0.9972 B(  4-C , 10-H ) :   0.9058 B(  4-C , 11-H ) :   0.9132
B(  5-C ,  6-O ) :   2.2260 B(  5-C , 12-H ) :   0.9141

FINAL SINGLE POINT ENERGY      -308.444387208990

DIPOLE MOMENT
-------------
                                X             Y             Z
Electronic contribution:     -3.75422      -1.00170      -1.97399
Nuclear contribution   :      3.79976       1.48375       2.75174
                        -----------------------------------------
Total Dipole Moment    :      0.04554       0.48205       0.77775
                        -----------------------------------------
Magnitude (a.u.)       :      0.91615
Magnitude (Debye)      :      2.32867

                             ****ORCA TERMINATED NORMALLY****
TOTAL RUN TIME: 0 days 0 hours 15 minutes 50 seconds 563 msec
