                         Program Version 4.0.1 -  RELEASE  -
|  1> %pal nprocs 2 end
|  2> %maxcore 1000
|  3> ! b3lyp TIGHTSCF
|  4> ! cc-pvdz def2/J RIJCOSX
|  5> ! Opt
|  6>
|  7> %geom
|  8> maxiter 60
|  9> TolE 1e-4
| 10> TolRMSG 2e-3
| 11> TolMaxG 3e-3
| 12> TolRMSD 2e-2
| 13> TolMaxD 3e-2
| 14> end
| 15>
| 16> *xyz 0 1
| 17> C 0.7595 1.2584 -0.1393
| 18> C -0.1618 0.3931 0.3042
| 19> C -1.5538 0.7717 0.7111
| 20> C -2.6144 0.0802 -0.1261
| 21> O -2.4115 -0.8198 -0.9353
| 22> H 0.5566 2.3208 -0.2291
| 23> H -1.7221 0.4972 1.7574
| 24> H -1.7143 1.8511 0.6139
| 25> H -3.6444 0.4292 0.0637
| 26> H 1.7466 0.9117 -0.4316
| 27> H 0.093 -0.6643 0.3614
| 28> *
| 29>
| 30>
| 31>                          ****END OF INPUT****
 Total Charge           Charge          ....    0
 Multiplicity           Mult            ....    1
 Number of Electrons    NEL             ....   38
FINAL SINGLE POINT ENERGY      -231.092467673450
FINAL SINGLE POINT ENERGY      -231.093629747890
FINAL SINGLE POINT ENERGY      -231.092998154740
FINAL SINGLE POINT ENERGY      -231.094152263745
                    ***********************HURRAY********************

CARTESIAN COORDINATES (ANGSTROEM)
---------------------------------
  C      0.789559    1.260330   -0.117427
  C     -0.146881    0.391781    0.270962
  C     -1.548349    0.769492    0.659792
  C     -2.640803    0.052579   -0.111366
  O     -2.455981   -0.815135   -0.930267
  H      0.584830    2.334583   -0.188891
  H     -1.739286    0.537838    1.729489
  H     -1.719302    1.857819    0.557641
  H     -3.681579    0.390661    0.147744
  H      1.795006    0.924922   -0.385238
  H      0.096186   -0.675569    0.317859

 Multiplicity           Mult            ....    1
 Number of Electrons    NEL             ....   38
 Basis Dimension        Dim             ....  100

ORBITAL ENERGIES
----------------

  NO   OCC          E(Eh)            E(eV)
   0   2.0000     -19.142936      -520.9058
   1   2.0000     -10.279792      -279.7274
   2   2.0000     -10.207594      -277.7627
   3   2.0000     -10.196945      -277.4730
   4   2.0000     -10.186495      -277.1886
   5   2.0000      -1.050773       -28.5930
   6   2.0000      -0.803921       -21.8758
   7   2.0000      -0.721934       -19.6448
   8   2.0000      -0.596536       -16.2326
   9   2.0000      -0.543538       -14.7904
  10   2.0000      -0.483026       -13.1438
  11   2.0000      -0.472145       -12.8477
  12   2.0000      -0.444405       -12.0929
  13   2.0000      -0.418322       -11.3831
  14   2.0000      -0.405468       -11.0334
  15   2.0000      -0.363018        -9.8782
  16   2.0000      -0.352065        -9.5802
  17   2.0000      -0.271933        -7.3997
  18   2.0000      -0.251035        -6.8310
  19   0.0000      -0.022297        -0.6067
  20   0.0000       0.007753         0.2110
  21   0.0000       0.067308         1.8315
  22   0.0000       0.082925         2.2565
  23   0.0000       0.097243         2.6461

MULLIKEN ATOMIC CHARGES
-----------------------
   0 C :    0.021959
   1 C :   -0.057500
   2 C :   -0.024096
   3 C :    0.151607
   4 O :   -0.180666
   5 H :    0.010160
   6 H :    0.050978
   7 H :    0.032930
   8 H :   -0.020204
   9 H :    0.019371
  10 H :   -0.004538
Sum of atomic charges:   -0.0000000

LOEWDIN ATOMIC CHARGES
----------------------
   0 C :   -0.051075
   1 C :   -0.023307
   2 C :   -0.078335
   3 C :   -0.020699
   4 O :    0.001942
   5 H :    0.021140
   6 H :    0.053651
   7 H :    0.046319
   8 H :   -0.006927
   9 H :    0.027557
  10 H :    0.029734

  Mayer bond orders larger than 0.1
B(  0-C ,  1-C ) :   2.0522 B(  0-C ,  5-H ) :   0.9391 B(  0-C ,  9-H ) :   0.9388
B(  1-C ,  2-C ) :   1.0634 B(  1-C , 10-H ) :   0.9484 B(  2-C ,  3-C ) :   0.9971
B(  2-C ,  6-H ) :   0.9097 B(  2-C ,  7-H ) :   0.9218 B(  3-C ,  4-O ) :   2.2439
B(  3-C ,  8-H ) :   0.9143

FINAL SINGLE POINT ENERGY      -231.094210302437

DIPOLE MOMENT
-------------
                                X             Y             Z
Electronic contribution:     -2.55618      -2.61406      -1.69124
Nuclear contribution   :      2.56038       3.24752       2.37286
                        -----------------------------------------
Total Dipole Moment    :      0.00420       0.63346       0.68162
                        -----------------------------------------
Magnitude (a.u.)       :      0.93053
Magnitude (Debye)      :      2.36523

                             ****ORCA TERMINATED NORMALLY****
TOTAL RUN TIME: 0 days 0 hours 7 minutes 26 seconds 184 msec
