                         Program Version 4.0.1 -  RELEASE  -
|  1> %pal nprocs 2 end
|  2> %maxcore 1000
|  3> ! b3lyp TIGHTSCF
|  4> ! cc-pvdz def2/J RIJCOSX
|  5> ! Opt
|  6>
|  7> %geom
|  8> maxiter 60
|  9> TolE 1e-4
| 10> TolRMSG 2e-3
| 11> TolMaxG 3e-3
| 12> TolRMSD 2e-2
| 13> TolMaxD 3e-2
| 14> end
| 15>
| 16> *xyz 0 1
| 17> C 0.3198 -0.9516 0.5248
| 18> C -0.1505 0.29 0.3459
| 19> C -1.5428 0.7314 0.6838
| 20> C -2.6462 0.0876 -0.1403
| 21> O -2.5002 -0.7944 -0.9801
| 22> H -0.3027 -1.7456 0.9266
| 23> H -1.7534 0.5359 1.7411
| 24> H -1.6193 1.814 0.5324
| 25> H -3.6572 0.4729 0.0796
| 26> H 1.3381 -1.2068 0.248
| 27> H 0.5116 1.0418 -0.0784
| 28> *
| 29>
| 30>
| 31>                          ****END OF INPUT****
 Total Charge           Charge          ....    0
 Multiplicity           Mult            ....    1
 Number of Electrons    NEL             ....   38
FINAL SINGLE POINT ENERGY      -231.088663267990
FINAL SINGLE POINT ENERGY      -231.090088187071
FINAL SINGLE POINT ENERGY      -231.089805354196
FINAL SINGLE POINT ENERGY      -231.090418254014
FINAL SINGLE POINT ENERGY      -231.090519279635
FINAL SINGLE POINT ENERGY      -231.090784785498
FINAL SINGLE POINT ENERGY      -231.091101517544
FINAL SINGLE POINT ENERGY      -231.088234591599
FINAL SINGLE POINT ENERGY      -231.089601618610
FINAL SINGLE POINT ENERGY      -231.090432087565
FINAL SINGLE POINT ENERGY      -231.092835104616
FINAL SINGLE POINT ENERGY      -231.093204021627
FINAL SINGLE POINT ENERGY      -231.093418616995
FINAL SINGLE POINT ENERGY      -231.093603126341
FINAL SINGLE POINT ENERGY      -231.093890229950
FINAL SINGLE POINT ENERGY      -231.094119366508
FINAL SINGLE POINT ENERGY      -231.094188666690
                    ***********************HURRAY********************

CARTESIAN COORDINATES (ANGSTROEM)
---------------------------------
  C      0.550733   -0.827951    0.796312
  C     -0.266927    0.015935    0.163578
  C     -1.594477    0.477789    0.689527
  C     -2.729194    0.379490   -0.312406
  O     -2.604820    0.021046   -1.460048
  H      0.295327   -1.255621    1.771707
  H     -1.893022   -0.062908    1.606714
  H     -1.552046    1.545430    0.994489
  H     -3.729084    0.693873    0.091790
  H      1.507678   -1.124787    0.359516
  H      0.013033    0.412905   -0.817779

 Multiplicity           Mult            ....    1
 Number of Electrons    NEL             ....   38
 Basis Dimension        Dim             ....  100

ORBITAL ENERGIES
----------------

  NO   OCC          E(Eh)            E(eV)
   0   2.0000     -19.143418      -520.9189
   1   2.0000     -10.280037      -279.7340
   2   2.0000     -10.206965      -277.7456
   3   2.0000     -10.195301      -277.4282
   4   2.0000     -10.185121      -277.1512
   5   2.0000      -1.050634       -28.5892
   6   2.0000      -0.803630       -21.8679
   7   2.0000      -0.721645       -19.6370
   8   2.0000      -0.596519       -16.2321
   9   2.0000      -0.543944       -14.8015
  10   2.0000      -0.483645       -13.1607
  11   2.0000      -0.469936       -12.7876
  12   2.0000      -0.444727       -12.1016
  13   2.0000      -0.418803       -11.3962
  14   2.0000      -0.404473       -11.0063
  15   2.0000      -0.363761        -9.8984
  16   2.0000      -0.351079        -9.5534
  17   2.0000      -0.270184        -7.3521
  18   2.0000      -0.251967        -6.8564
  19   0.0000      -0.023184        -0.6309
  20   0.0000       0.008363         0.2276
  21   0.0000       0.067244         1.8298
  22   0.0000       0.084479         2.2988
  23   0.0000       0.098861         2.6902

MULLIKEN ATOMIC CHARGES
-----------------------
   0 C :    0.026904
   1 C :   -0.060724
   2 C :   -0.015696
   3 C :    0.152222
   4 O :   -0.183059
   5 H :    0.005090
   6 H :    0.028458
   7 H :    0.051674
   8 H :   -0.018744
   9 H :    0.019393
  10 H :   -0.005517
Sum of atomic charges:   -0.0000000

LOEWDIN ATOMIC CHARGES
----------------------
   0 C :   -0.051046
   1 C :   -0.024247
   2 C :   -0.077074
   3 C :   -0.018805
   4 O :    0.000556
   5 H :    0.020155
   6 H :    0.045539
   7 H :    0.054332
   8 H :   -0.006179
   9 H :    0.027293
  10 H :    0.029477

  Mayer bond orders larger than 0.1
B(  0-C ,  1-C ) :   2.0495 B(  0-C ,  5-H ) :   0.9391 B(  0-C ,  9-H ) :   0.9399
B(  1-C ,  2-C ) :   1.0627 B(  1-C , 10-H ) :   0.9474 B(  2-C ,  3-C ) :   1.0054
B(  2-C ,  6-H ) :   0.9202 B(  2-C ,  7-H ) :   0.9083 B(  3-C ,  4-O ) :   2.2350
B(  3-C ,  8-H ) :   0.9149

FINAL SINGLE POINT ENERGY      -231.094196724567

DIPOLE MOMENT
-------------
                                X             Y             Z
Electronic contribution:     -2.58508       0.20298      -3.11678
Nuclear contribution   :      2.63236       0.10845       3.99981
                        -----------------------------------------
Total Dipole Moment    :      0.04728       0.31143       0.88304
                        -----------------------------------------
Magnitude (a.u.)       :      0.93754
Magnitude (Debye)      :      2.38303

                             ****ORCA TERMINATED NORMALLY****
TOTAL RUN TIME: 0 days 0 hours 20 minutes 6 seconds 494 msec
