                         Program Version 4.0.1 -  RELEASE  -
|  1> %pal nprocs 2 end
|  2> %maxcore 1000
|  3> ! b3lyp TIGHTSCF
|  4> ! cc-pvdz def2/J RIJCOSX
|  5> ! Opt
|  6>
|  7> %geom
|  8> maxiter 60
|  9> TolE 1e-4
| 10> TolRMSG 2e-3
| 11> TolMaxG 3e-3
| 12> TolRMSD 2e-2
| 13> TolMaxD 3e-2
| 14> end
| 15>
| 16> *xyz 0 1
| 17> O -2.5114 -0.8207 -0.9485
| 18> C -2.6536 0.08 -0.131
| 19> H -3.641 0.506 0.1082
| 20> H -1.8026 0.5185 0.4143
| 21> *
| 22>
| 23>
| 24>                          ****END OF INPUT****
 Total Charge           Charge          ....    0
 Multiplicity           Mult            ....    1
 Number of Electrons    NEL             ....   16
FINAL SINGLE POINT ENERGY      -114.447485826471
FINAL SINGLE POINT ENERGY      -114.448352643054
FINAL SINGLE POINT ENERGY      -114.448406959818
                    ***********************HURRAY********************

CARTESIAN COORDINATES (ANGSTROEM)
---------------------------------
  O     -2.512663   -0.813910   -0.942691
  C     -2.652187    0.070977   -0.138184
  H     -3.655189    0.506881    0.106407
  H     -1.788561    0.519852    0.417468

 Multiplicity           Mult            ....    1
 Number of Electrons    NEL             ....   16
 Basis Dimension        Dim             ....   38

ORBITAL ENERGIES
----------------

  NO   OCC          E(Eh)            E(eV)
   0   2.0000     -19.156644      -521.2788
   1   2.0000     -10.286015      -279.8967
   2   2.0000      -1.060046       -28.8453
   3   2.0000      -0.629254       -17.1229
   4   2.0000      -0.488397       -13.2900
   5   2.0000      -0.446774       -12.1573
   6   2.0000      -0.397383       -10.8134
   7   2.0000      -0.263603        -7.1730
   8   0.0000      -0.040502        -1.1021
   9   0.0000       0.068085         1.8527
  10   0.0000       0.135684         3.6922
  11   0.0000       0.212425         5.7804
  12   0.0000       0.453762        12.3475

MULLIKEN ATOMIC CHARGES
-----------------------
   0 O :   -0.178994
   1 C :    0.163929
   2 H :    0.006913
   3 H :    0.008151
Sum of atomic charges:   -0.0000000

LOEWDIN ATOMIC CHARGES
----------------------
   0 O :    0.014619
   1 C :   -0.000057
   2 H :   -0.007438
   3 H :   -0.007123

  Mayer bond orders larger than 0.1
B(  0-O ,  1-C ) :   2.2324 B(  1-C ,  2-H ) :   0.9172 B(  1-C ,  3-H ) :   0.9174

FINAL SINGLE POINT ENERGY      -114.448409846247

DIPOLE MOMENT
-------------
                                X             Y             Z
Electronic contribution:      0.16722      -1.05565      -0.95638
Nuclear contribution   :     -0.26044       1.65250       1.49875
                        -----------------------------------------
Total Dipole Moment    :     -0.09323       0.59685       0.54236
                        -----------------------------------------
Magnitude (a.u.)       :      0.81183
Magnitude (Debye)      :      2.06352

                             ****ORCA TERMINATED NORMALLY****
TOTAL RUN TIME: 0 days 0 hours 5 minutes 9 seconds 279 msec
