                         Program Version 4.0.1 -  RELEASE  -
|  1> %pal nprocs 2 end
|  2> %maxcore 1000
|  3> ! b3lyp TIGHTSCF
|  4> ! cc-pvdz def2/J RIJCOSX
|  5> ! Opt
|  6>
|  7> %geom
|  8> maxiter 60
|  9> TolE 1e-4
| 10> TolRMSG 2e-3
| 11> TolMaxG 3e-3
| 12> TolRMSD 2e-2
| 13> TolMaxD 3e-2
| 14> end
| 15>
| 16> *xyz 0 1
| 17> C 2.6885 -0.4657 -0.174
| 18> C 1.6876 -1.238 0.2659
| 19> C 0.3196 -0.8377 0.5136
| 20> C -0.2034 0.3882 0.3507
| 21> C -1.6268 0.7425 0.6656
| 22> C -2.6722 0.0618 -0.2025
| 23> O -2.4564 -0.7904 -1.0578
| 24> H 3.6768 -0.8883 -0.327
| 25> H 1.8967 -2.2897 0.4602
| 26> H -0.3245 -1.6421 0.8694
| 27> H -1.851 0.5081 1.7121
| 28> H -1.7603 1.823 0.5394
| 29> H -3.7081 0.3868 -0.0013
| 30> H 2.5663 0.5872 -0.3985
| 31> H 0.4137 1.2049 -0.012
| 32> *
| 33>
| 34>
| 35>                          ****END OF INPUT****
 Total Charge           Charge          ....    0
 Multiplicity           Mult            ....    1
 Number of Electrons    NEL             ....   52
FINAL SINGLE POINT ENERGY      -308.439990428045
FINAL SINGLE POINT ENERGY      -308.442022911692
FINAL SINGLE POINT ENERGY      -308.442098180046
FINAL SINGLE POINT ENERGY      -308.442209254952
FINAL SINGLE POINT ENERGY      -308.442378824165
                    ***********************HURRAY********************

CARTESIAN COORDINATES (ANGSTROEM)
---------------------------------
  C      2.739407   -0.469783   -0.162950
  C      1.724597   -1.242675    0.256902
  C      0.334040   -0.839347    0.516667
  C     -0.205288    0.377546    0.327825
  C     -1.634170    0.726644    0.643789
  C     -2.713888    0.076324   -0.212194
  O     -2.544964   -0.785907   -1.038235
  H      3.735203   -0.891829   -0.316845
  H      1.937965   -2.300221    0.448986
  H     -0.310558   -1.630385    0.915304
  H     -1.899392    0.462288    1.688457
  H     -1.804177    1.817196    0.582577
  H     -3.742226    0.471564    0.013374
  H      2.619619    0.597563   -0.371382
  H      0.410333    1.181620   -0.088473

 Multiplicity           Mult            ....    1
 Number of Electrons    NEL             ....   52
 Basis Dimension        Dim             ....  138

ORBITAL ENERGIES
----------------

  NO   OCC          E(Eh)            E(eV)
   0   2.0000     -19.142265      -520.8875
   1   2.0000     -10.279661      -279.7238
   2   2.0000     -10.207964      -277.7728
   3   2.0000     -10.193436      -277.3775
   4   2.0000     -10.192640      -277.3558
   5   2.0000     -10.190394      -277.2947
   6   2.0000     -10.183890      -277.1177
   7   2.0000      -1.049947       -28.5705
   8   2.0000      -0.815247       -22.1840
   9   2.0000      -0.771375       -20.9902
  10   2.0000      -0.706122       -19.2146
  11   2.0000      -0.620666       -16.8892
  12   2.0000      -0.564776       -15.3683
  13   2.0000      -0.526263       -14.3204
  14   2.0000      -0.484837       -13.1931
  15   2.0000      -0.470849       -12.8125
  16   2.0000      -0.458325       -12.4717
  17   2.0000      -0.434612       -11.8264
  18   2.0000      -0.415762       -11.3135
  19   2.0000      -0.401371       -10.9219
  20   2.0000      -0.371473       -10.1083
  21   2.0000      -0.348769        -9.4905
  22   2.0000      -0.346997        -9.4423
  23   2.0000      -0.316741        -8.6190
  24   2.0000      -0.256371        -6.9762
  25   2.0000      -0.225462        -6.1351
  26   0.0000      -0.039106        -1.0641
  27   0.0000      -0.020498        -0.5578
  28   0.0000       0.058371         1.5883
  29   0.0000       0.070323         1.9136
  30   0.0000       0.077362         2.1051

MULLIKEN ATOMIC CHARGES
-----------------------
   0 C :    0.029375
   1 C :   -0.039548
   2 C :    0.049167
   3 C :   -0.024407
   4 C :   -0.018352
   5 C :    0.151950
   6 O :   -0.174669
   7 H :    0.017186
   8 H :   -0.018360
   9 H :   -0.030456
  10 H :    0.048078
  11 H :    0.034028
  12 H :   -0.020731
  13 H :    0.014733
  14 H :   -0.017993
Sum of atomic charges:   -0.0000000

LOEWDIN ATOMIC CHARGES
----------------------
   0 C :   -0.039574
   1 C :   -0.038297
   2 C :   -0.029766
   3 C :   -0.019287
   4 C :   -0.080792
   5 C :   -0.022810
   6 O :    0.006205
   7 H :    0.026891
   8 H :    0.030685
   9 H :    0.027454
  10 H :    0.054659
  11 H :    0.047686
  12 H :   -0.006833
  13 H :    0.020431
  14 H :    0.023349

  Mayer bond orders larger than 0.1
B(  0-C ,  1-C ) :   1.9910 B(  0-C ,  3-C ) :   0.1014 B(  0-C ,  7-H ) :   0.9288
B(  0-C , 13-H ) :   0.9302 B(  1-C ,  2-C ) :   1.1644 B(  1-C ,  8-H ) :   0.9334
B(  2-C ,  3-C ) :   1.8694 B(  2-C ,  9-H ) :   0.9350 B(  3-C ,  4-C ) :   1.0742
B(  3-C , 14-H ) :   0.9343 B(  4-C ,  5-C ) :   0.9845 B(  4-C , 10-H ) :   0.9127
B(  4-C , 11-H ) :   0.9236 B(  5-C ,  6-O ) :   2.2515 B(  5-C , 12-H ) :   0.9075

FINAL SINGLE POINT ENERGY      -308.442423014814

DIPOLE MOMENT
-------------
                                X             Y             Z
Electronic contribution:     -3.73062      -1.38223      -1.78501
Nuclear contribution   :      3.73131       2.00942       2.46475
                        -----------------------------------------
Total Dipole Moment    :      0.00069       0.62719       0.67974
                        -----------------------------------------
Magnitude (a.u.)       :      0.92489
Magnitude (Debye)      :      2.35088

                             ****ORCA TERMINATED NORMALLY****
TOTAL RUN TIME: 0 days 0 hours 8 minutes 55 seconds 106 msec
