                         Program Version 4.0.1 -  RELEASE  -
|  1> %pal nprocs 2 end
|  2> %maxcore 1000
|  3> ! b3lyp TIGHTSCF
|  4> ! cc-pvdz def2/J RIJCOSX
|  5> ! Opt
|  6>
|  7> %geom
|  8> maxiter 60
|  9> TolE 1e-4
| 10> TolRMSG 2e-3
| 11> TolMaxG 3e-3
| 12> TolRMSD 2e-2
| 13> TolMaxD 3e-2
| 14> end
| 15>
| 16> *xyz 0 1
| 17> O -2.4915 -0.8074 -0.9326
| 18> C -1.5507 0.7229 0.6627
| 19> C -2.6627 0.0945 -0.1191
| 20> H -1.7387 0.5805 1.7294
| 21> H -1.5127 1.7907 0.4352
| 22> H -3.6709 0.4954 0.0797
| 23> H -0.5971 0.2603 0.3966
| 24> *
| 25>
| 26>
| 27>                          ****END OF INPUT****
 Total Charge           Charge          ....    0
 Multiplicity           Mult            ....    1
 Number of Electrons    NEL             ....   24
FINAL SINGLE POINT ENERGY      -153.748579681802
FINAL SINGLE POINT ENERGY      -153.749605498579
FINAL SINGLE POINT ENERGY      -153.749669268573
FINAL SINGLE POINT ENERGY      -153.749719484113
FINAL SINGLE POINT ENERGY      -153.749768313276
                    ***********************HURRAY********************

CARTESIAN COORDINATES (ANGSTROEM)
---------------------------------
  O     -2.509127   -0.797277   -0.953631
  C     -1.542730    0.713407    0.657348
  C     -2.656577    0.076979   -0.132467
  H     -1.747153    0.611473    1.738563
  H     -1.511183    1.796863    0.441845
  H     -3.680070    0.484410    0.093405
  H     -0.577460    0.251044    0.406837

 Multiplicity           Mult            ....    1
 Number of Electrons    NEL             ....   24
 Basis Dimension        Dim             ....   62

ORBITAL ENERGIES
----------------

  NO   OCC          E(Eh)            E(eV)
   0   2.0000     -19.139541      -520.8134
   1   2.0000     -10.278175      -279.6834
   2   2.0000     -10.198816      -277.5239
   3   2.0000      -1.046900       -28.4876
   4   2.0000      -0.750886       -20.4326
   5   2.0000      -0.575388       -15.6571
   6   2.0000      -0.474389       -12.9088
   7   2.0000      -0.441461       -12.0128
   8   2.0000      -0.432505       -11.7691
   9   2.0000      -0.394628       -10.7384
  10   2.0000      -0.362489        -9.8638
  11   2.0000      -0.252726        -6.8770
  12   0.0000      -0.020793        -0.5658
  13   0.0000       0.068070         1.8523
  14   0.0000       0.095478         2.5981
  15   0.0000       0.121587         3.3085
  16   0.0000       0.129744         3.5305

MULLIKEN ATOMIC CHARGES
-----------------------
   0 O :   -0.187410
   1 C :   -0.039743
   2 C :    0.110257
   3 H :    0.048385
   4 H :    0.049986
   5 H :   -0.021057
   6 H :    0.039582
Sum of atomic charges:    0.0000000

LOEWDIN ATOMIC CHARGES
----------------------
   0 O :   -0.002254
   1 C :   -0.092229
   2 C :   -0.027513
   3 H :    0.046542
   4 H :    0.047859
   5 H :   -0.008791
   6 H :    0.036386

  Mayer bond orders larger than 0.1
B(  0-O ,  2-C ) :   2.2273 B(  1-C ,  2-C ) :   1.0527 B(  1-C ,  3-H ) :   0.9490
B(  1-C ,  4-H ) :   0.9478 B(  1-C ,  6-H ) :   0.9592 B(  2-C ,  5-H ) :   0.9114

FINAL SINGLE POINT ENERGY      -153.749769364454

DIPOLE MOMENT
-------------
                                X             Y             Z
Electronic contribution:     -1.24297      -2.23665      -2.34798
Nuclear contribution   :      1.30629       2.94562       3.03539
                        -----------------------------------------
Total Dipole Moment    :      0.06332       0.70898       0.68741
                        -----------------------------------------
Magnitude (a.u.)       :      0.98954
Magnitude (Debye)      :      2.51521

                             ****ORCA TERMINATED NORMALLY****
TOTAL RUN TIME: 0 days 0 hours 7 minutes 4 seconds 281 msec
