                         Program Version 4.0.1 -  RELEASE  -
|  1> %pal nprocs 2 end
|  2> %maxcore 1000
|  3> ! b3lyp TIGHTSCF
|  4> ! cc-pvdz def2/J RIJCOSX
|  5> ! Opt
|  6>
|  7> %geom
|  8> maxiter 60
|  9> TolE 1e-4
| 10> TolRMSG 2e-3
| 11> TolMaxG 3e-3
| 12> TolRMSD 2e-2
| 13> TolMaxD 3e-2
| 14> end
| 15>
| 16> *xyz 0 1
| 17> C 0.3147 -0.9508 0.5131
| 18> C -0.142 0.2971 0.3525
| 19> C -1.5367 0.7268 0.6695
| 20> H -0.3184 -1.7463 0.8937
| 21> H -2.1469 -0.0983 1.0503
| 22> H -1.5203 1.517 1.4263
| 23> H 1.3411 -1.2027 0.2644
| 24> H 0.5294 1.0617 -0.0322
| 25> H -2.0188 1.1214 -0.2301
| 26> *
| 27>
| 28>
| 29>                          ****END OF INPUT****
 Total Charge           Charge          ....    0
 Multiplicity           Mult            ....    1
 Number of Electrons    NEL             ....   24
FINAL SINGLE POINT ENERGY      -117.823793998183
FINAL SINGLE POINT ENERGY      -117.824362242095
                    ***********************HURRAY********************

CARTESIAN COORDINATES (ANGSTROEM)
---------------------------------
  C      0.326291   -0.956841    0.511889
  C     -0.139051    0.287001    0.356479
  C     -1.541373    0.732413    0.669928
  H     -0.310890   -1.763019    0.890744
  H     -2.153896   -0.097784    1.057062
  H     -1.540056    1.540192    1.424345
  H      1.359530   -1.213096    0.259730
  H      0.538697    1.059114   -0.031598
  H     -2.037152    1.137920   -0.231079

 Multiplicity           Mult            ....    1
 Number of Electrons    NEL             ....   24
 Basis Dimension        Dim             ....   72

ORBITAL ENERGIES
----------------

  NO   OCC          E(Eh)            E(eV)
   0   2.0000     -10.188088      -277.2320
   1   2.0000     -10.183782      -277.1148
   2   2.0000     -10.174526      -276.8629
   3   2.0000      -0.780141       -21.2287
   4   2.0000      -0.679278       -18.4841
   5   2.0000      -0.546864       -14.8809
   6   2.0000      -0.459006       -12.4902
   7   2.0000      -0.414729       -11.2853
   8   2.0000      -0.406518       -11.0619
   9   2.0000      -0.365821        -9.9545
  10   2.0000      -0.340482        -9.2650
  11   2.0000      -0.252292        -6.8652
  12   0.0000       0.020945         0.5699
  13   0.0000       0.074322         2.0224
  14   0.0000       0.098102         2.6695
  15   0.0000       0.110134         2.9969
  16   0.0000       0.139476         3.7953

MULLIKEN ATOMIC CHARGES
-----------------------
   0 C :    0.018034
   1 C :   -0.123907
   2 C :    0.014153
   3 H :    0.004362
   4 H :    0.018767
   5 H :    0.036461
   6 H :    0.011698
   7 H :   -0.013560
   8 H :    0.033992
Sum of atomic charges:    0.0000000

LOEWDIN ATOMIC CHARGES
----------------------
   0 C :   -0.067015
   1 C :   -0.035649
   2 C :   -0.068996
   3 H :    0.019074
   4 H :    0.031254
   5 H :    0.036884
   6 H :    0.023164
   7 H :    0.024570
   8 H :    0.036714

  Mayer bond orders larger than 0.1
B(  0-C ,  1-C ) :   2.0568 B(  0-C ,  3-H ) :   0.9373 B(  0-C ,  6-H ) :   0.9402
B(  1-C ,  2-C ) :   1.1138 B(  1-C ,  7-H ) :   0.9471 B(  2-C ,  4-H ) :   0.9612
B(  2-C ,  5-H ) :   0.9530 B(  2-C ,  8-H ) :   0.9524

FINAL SINGLE POINT ENERGY      -117.824411056838

DIPOLE MOMENT
-------------
                                X             Y             Z
Electronic contribution:      1.05818      -0.30840      -0.23907
Nuclear contribution   :     -1.15319       0.43234       0.23507
                        -----------------------------------------
Total Dipole Moment    :     -0.09501       0.12395      -0.00400
                        -----------------------------------------
Magnitude (a.u.)       :      0.15622
Magnitude (Debye)      :      0.39709

                             ****ORCA TERMINATED NORMALLY****
TOTAL RUN TIME: 0 days 0 hours 4 minutes 40 seconds 865 msec
