                         Program Version 4.0.1 -  RELEASE  -
|  1> %pal nprocs 2 end
|  2> %maxcore 1000
|  3> ! b3lyp TIGHTSCF
|  4> ! cc-pvdz def2/J RIJCOSX
|  5> ! Opt
|  6>
|  7> %geom
|  8> maxiter 60
|  9> TolE 1e-4
| 10> TolRMSG 2e-3
| 11> TolMaxG 3e-3
| 12> TolRMSD 2e-2
| 13> TolMaxD 3e-2
| 14> end
| 15>
| 16> *xyz 0 1
| 17> C 0.7391 1.4325 -0.1234
| 18> C 1.6117 -1.4384 0.2758
| 19> C 0.3833 -0.9446 0.4783
| 20> C -0.0526 0.4329 0.2985
| 21> C -1.4952 0.693 0.6484
| 22> H 0.3581 2.4437 -0.2301
| 23> H 1.8108 -2.492 0.4464
| 24> H -0.3853 -1.6408 0.8149
| 25> H -1.6891 0.4399 1.6965
| 26> H -1.7703 1.7441 0.5077
| 27> H 1.7828 1.2892 -0.3781
| 28> H 2.4458 -0.8325 -0.0575
| 29> H -2.1584 0.0923 0.0162
| 30> *
| 31>
| 32>
| 33>                          ****END OF INPUT****
 Total Charge           Charge          ....    0
 Multiplicity           Mult            ....    1
 Number of Electrons    NEL             ....   38
FINAL SINGLE POINT ENERGY      -195.173445573400
FINAL SINGLE POINT ENERGY      -195.174299391728
FINAL SINGLE POINT ENERGY      -195.174383385567
                    ***********************HURRAY********************

CARTESIAN COORDINATES (ANGSTROEM)
---------------------------------
  C      0.744504    1.441233   -0.116697
  C      1.621038   -1.451108    0.268808
  C      0.393372   -0.953370    0.480416
  C     -0.056663    0.449749    0.310743
  C     -1.507247    0.705348    0.649184
  H      0.366647    2.459886   -0.232273
  H      1.830253   -2.511109    0.430536
  H     -0.384400   -1.647518    0.821492
  H     -1.719782    0.452929    1.703935
  H     -1.784697    1.756522    0.481762
  H      1.793624    1.273595   -0.373047
  H      2.456431   -0.830430   -0.066308
  H     -2.172380    0.073573    0.035048

 Multiplicity           Mult            ....    1
 Number of Electrons    NEL             ....   38
 Basis Dimension        Dim             ....  110

ORBITAL ENERGIES
----------------

  NO   OCC          E(Eh)            E(eV)
   0   2.0000     -10.195831      -277.4427
   1   2.0000     -10.189949      -277.2826
   2   2.0000     -10.183137      -277.0972
   3   2.0000     -10.183039      -277.0946
   4   2.0000     -10.174709      -276.8679
   5   2.0000      -0.813495       -22.1363
   6   2.0000      -0.737983       -20.0815
   7   2.0000      -0.680785       -18.5251
   8   2.0000      -0.601427       -16.3657
   9   2.0000      -0.511463       -13.9176
  10   2.0000      -0.471724       -12.8363
  11   2.0000      -0.446585       -12.1522
  12   2.0000      -0.411607       -11.2004
  13   2.0000      -0.406867       -11.0714
  14   2.0000      -0.376574       -10.2471
  15   2.0000      -0.352767        -9.5993
  16   2.0000      -0.339566        -9.2401
  17   2.0000      -0.303849        -8.2682
  18   2.0000      -0.225083        -6.1248
  19   0.0000      -0.030095        -0.8189
  20   0.0000       0.069681         1.8961
  21   0.0000       0.075034         2.0418
  22   0.0000       0.088838         2.4174
  23   0.0000       0.097643         2.6570

MULLIKEN ATOMIC CHARGES
-----------------------
   0 C :    0.041177
   1 C :    0.038197
   2 C :   -0.021867
   3 C :   -0.187345
   4 C :    0.049592
   5 H :    0.002444
   6 H :    0.017824
   7 H :   -0.035130
   8 H :    0.033431
   9 H :    0.012137
  10 H :    0.006753
  11 H :    0.009885
  12 H :    0.032902
Sum of atomic charges:   -0.0000000

LOEWDIN ATOMIC CHARGES
----------------------
   0 C :   -0.050757
   1 C :   -0.036143
   2 C :   -0.031773
   3 C :   -0.044131
   4 C :   -0.053547
   5 H :    0.021141
   6 H :    0.026816
   7 H :    0.026642
   8 H :    0.035323
   9 H :    0.030723
  10 H :    0.019569
  11 H :    0.021143
  12 H :    0.034996

  Mayer bond orders larger than 0.1
B(  0-C ,  3-C ) :   2.0048 B(  0-C ,  5-H ) :   0.9071 B(  0-C , 10-H ) :   0.9132
B(  1-C ,  2-C ) :   2.0029 B(  1-C ,  6-H ) :   0.9272 B(  1-C , 11-H ) :   0.9295
B(  2-C ,  3-C ) :   1.1098 B(  2-C ,  7-H ) :   0.9306 B(  3-C ,  4-C ) :   1.0940
B(  4-C ,  8-H ) :   0.9474 B(  4-C ,  9-H ) :   0.9529 B(  4-C , 12-H ) :   0.9467

FINAL SINGLE POINT ENERGY      -195.174393231491

DIPOLE MOMENT
-------------
                                X             Y             Z
Electronic contribution:      1.13290      -0.64175      -0.16885
Nuclear contribution   :     -1.26243       0.59592       0.20944
                        -----------------------------------------
Total Dipole Moment    :     -0.12953      -0.04583       0.04059
                        -----------------------------------------
Magnitude (a.u.)       :      0.14327
Magnitude (Debye)      :      0.36416

                             ****ORCA TERMINATED NORMALLY****
TOTAL RUN TIME: 0 days 0 hours 6 minutes 34 seconds 467 msec
