                         Program Version 4.0.1 -  RELEASE  -
|  1> %pal nprocs 2 end
|  2> %maxcore 1000
|  3> ! b3lyp TIGHTSCF
|  4> ! cc-pvdz def2/J RIJCOSX
|  5> ! Opt
|  6>
|  7> %geom
|  8> maxiter 60
|  9> TolE 1e-4
| 10> TolRMSG 2e-3
| 11> TolMaxG 3e-3
| 12> TolRMSD 2e-2
| 13> TolMaxD 3e-2
| 14> end
| 15>
| 16> *xyz 0 1
| 17> C 2.6618 -0.4165 -0.2003
| 18> C 1.6926 -1.2282 0.2395
| 19> C 0.3117 -0.8778 0.4851
| 20> C -0.2537 0.3243 0.3217
| 21> H 3.6681 -0.7962 -0.3478
| 22> H 1.9444 -2.2688 0.4416
| 23> H -0.3129 -1.697 0.8399
| 24> H 2.4953 0.6307 -0.4249
| 25> H 0.2965 1.1908 -0.0267
| 26> H -1.3075 0.4672 0.5402
| 27> *
| 28>
| 29>
| 30>                          ****END OF INPUT****
 Total Charge           Charge          ....    0
 Multiplicity           Mult            ....    1
 Number of Electrons    NEL             ....   30
FINAL SINGLE POINT ENERGY      -155.884251000280
FINAL SINGLE POINT ENERGY      -155.885072439763
                    ***********************HURRAY********************

CARTESIAN COORDINATES (ANGSTROEM)
---------------------------------
  C      2.681215   -0.422241   -0.201363
  C      1.704652   -1.232779    0.237243
  C      0.298793   -0.876227    0.485630
  C     -0.273618    0.327827    0.324105
  H      3.694153   -0.802600   -0.353658
  H      1.961974   -2.278147    0.442606
  H     -0.331151   -1.698792    0.842944
  H      2.509326    0.633786   -0.430574
  H      0.283925    1.201314   -0.025231
  H     -1.332969    0.476359    0.546598

 Multiplicity           Mult            ....    1
 Number of Electrons    NEL             ....   30
 Basis Dimension        Dim             ....   86

ORBITAL ENERGIES
----------------

  NO   OCC          E(Eh)            E(eV)
   0   2.0000     -10.192563      -277.3537
   1   2.0000     -10.192324      -277.3472
   2   2.0000     -10.184778      -277.1419
   3   2.0000     -10.184549      -277.1357
   4   2.0000      -0.800304       -21.7774
   5   2.0000      -0.725754       -19.7488
   6   2.0000      -0.617034       -16.7903
   7   2.0000      -0.523602       -14.2479
   8   2.0000      -0.485998       -13.2247
   9   2.0000      -0.436429       -11.8758
  10   2.0000      -0.413987       -11.2651
  11   2.0000      -0.357792        -9.7360
  12   2.0000      -0.346650        -9.4328
  13   2.0000      -0.320531        -8.7221
  14   2.0000      -0.230732        -6.2785
  15   0.0000      -0.036866        -1.0032
  16   0.0000       0.069049         1.8789
  17   0.0000       0.081323         2.2129
  18   0.0000       0.087319         2.3761
  19   0.0000       0.108716         2.9583

MULLIKEN ATOMIC CHARGES
-----------------------
   0 C :    0.031042
   1 C :   -0.042562
   2 C :   -0.047683
   3 C :    0.032675
   4 H :    0.018357
   5 H :   -0.020598
   6 H :   -0.017597
   7 H :    0.015220
   8 H :    0.010950
   9 H :    0.020195
Sum of atomic charges:   -0.0000000

LOEWDIN ATOMIC CHARGES
----------------------
   0 C :   -0.035948
   1 C :   -0.041796
   2 C :   -0.041869
   3 C :   -0.035736
   4 H :    0.026903
   5 H :    0.029147
   6 H :    0.029641
   7 H :    0.021660
   8 H :    0.020843
   9 H :    0.027154

  Mayer bond orders larger than 0.1
B(  0-C ,  1-C ) :   1.9942 B(  0-C ,  3-C ) :   0.1074 B(  0-C ,  4-H ) :   0.9302
B(  0-C ,  7-H ) :   0.9335 B(  1-C ,  2-C ) :   1.1585 B(  1-C ,  5-H ) :   0.9360
B(  2-C ,  3-C ) :   1.9949 B(  2-C ,  6-H ) :   0.9352 B(  3-C ,  8-H ) :   0.9333
B(  3-C ,  9-H ) :   0.9308

FINAL SINGLE POINT ENERGY      -155.885104277165

DIPOLE MOMENT
-------------
                                X             Y             Z
Electronic contribution:     -0.14739      -0.72339       0.21306
Nuclear contribution   :      0.14057       0.69750      -0.20477
                        -----------------------------------------
Total Dipole Moment    :     -0.00682      -0.02589       0.00829
                        -----------------------------------------
Magnitude (a.u.)       :      0.02803
Magnitude (Debye)      :      0.07124

                             ****ORCA TERMINATED NORMALLY****
TOTAL RUN TIME: 0 days 0 hours 4 minutes 44 seconds 81 msec
