                         Program Version 4.0.1 -  RELEASE  -
|  1> %pal nprocs 2 end
|  2> %maxcore 1000
|  3> ! b3lyp TIGHTSCF
|  4> ! cc-pvdz def2/J RIJCOSX
|  5> ! Opt
|  6>
|  7> %geom
|  8> maxiter 60
|  9> TolE 1e-4
| 10> TolRMSG 2e-3
| 11> TolMaxG 3e-3
| 12> TolRMSD 2e-2
| 13> TolMaxD 3e-2
| 14> end
| 15>
| 16> *xyz 0 1
| 17> C 0.8008 1.3182 -0.0642
| 18> C 2.1241 0.9691 -0.3392
| 19> C 2.5358 -0.3569 -0.2193
| 20> C 1.6227 -1.3361 0.1673
| 21> C 0.2989 -0.9884 0.442
| 22> C -0.1215 0.3431 0.3354
| 23> C -1.5333 0.7236 0.6693
| 24> H 0.4963 2.3585 -0.1525
| 25> H 2.8346 1.7332 -0.6433
| 26> H 3.5666 -0.6276 -0.4311
| 27> H 1.9418 -2.3709 0.2583
| 28> H -0.4003 -1.7618 0.7517
| 29> H -1.6114 0.9743 1.7316
| 30> H -1.8563 1.5864 0.0772
| 31> H -2.2227 -0.0979 0.4477
| 32> *
| 33>
| 34>
| 35>                          ****END OF INPUT****
 Total Charge           Charge          ....    0
 Multiplicity           Mult            ....    1
 Number of Electrons    NEL             ....   50
FINAL SINGLE POINT ENERGY      -271.396585246411
FINAL SINGLE POINT ENERGY      -271.397239982672
                    ***********************HURRAY********************

CARTESIAN COORDINATES (ANGSTROEM)
---------------------------------
  C      0.811352    1.314682   -0.050411
  C      2.136401    0.967919   -0.333675
  C      2.553644   -0.362237   -0.225776
  C      1.635385   -1.340001    0.167628
  C      0.310758   -0.988419    0.449291
  C     -0.121738    0.343442    0.344682
  C     -1.550577    0.727932    0.666042
  H      0.495946    2.358107   -0.146387
  H      2.844449    1.739253   -0.647680
  H      3.585815   -0.637649   -0.457776
  H      1.952383   -2.383302    0.252380
  H     -0.398133   -1.764723    0.752034
  H     -1.657454    0.999393    1.732181
  H     -1.875914    1.593769    0.068589
  H     -2.246219   -0.101365    0.459777

 Multiplicity           Mult            ....    1
 Number of Electrons    NEL             ....   50
 Basis Dimension        Dim             ....  138

ORBITAL ENERGIES
----------------

  NO   OCC          E(Eh)            E(eV)
   0   2.0000     -10.192827      -277.3609
   1   2.0000     -10.185025      -277.1486
   2   2.0000     -10.184792      -277.1423
   3   2.0000     -10.184405      -277.1318
   4   2.0000     -10.182834      -277.0890
   5   2.0000     -10.182303      -277.0746
   6   2.0000     -10.182248      -277.0731
   7   2.0000      -0.849484       -23.1156
   8   2.0000      -0.765552       -20.8317
   9   2.0000      -0.737954       -20.0808
  10   2.0000      -0.679308       -18.4849
  11   2.0000      -0.598140       -16.2762
  12   2.0000      -0.577281       -15.7086
  13   2.0000      -0.502685       -13.6788
  14   2.0000      -0.452832       -12.3222
  15   2.0000      -0.447788       -12.1849
  16   2.0000      -0.414510       -11.2794
  17   2.0000      -0.412203       -11.2166
  18   2.0000      -0.401797       -10.9335
  19   2.0000      -0.378769       -10.3068
  20   2.0000      -0.349437        -9.5087
  21   2.0000      -0.336056        -9.1445
  22   2.0000      -0.332954        -9.0601
  23   2.0000      -0.246650        -6.7117
  24   2.0000      -0.238218        -6.4822
  25   0.0000      -0.001642        -0.0447
  26   0.0000       0.000364         0.0099
  27   0.0000       0.064200         1.7470
  28   0.0000       0.082795         2.2530
  29   0.0000       0.097916         2.6644

MULLIKEN ATOMIC CHARGES
-----------------------
   0 C :    0.023035
   1 C :    0.034288
   2 C :    0.029871
   3 C :    0.042701
   4 C :    0.020557
   5 C :   -0.091918
   6 C :    0.046178
   7 H :   -0.049629
   8 H :   -0.030239
   9 H :   -0.035801
  10 H :   -0.033248
  11 H :   -0.048251
  12 H :    0.042291
  13 H :    0.025306
  14 H :    0.024858
Sum of atomic charges:   -0.0000000

LOEWDIN ATOMIC CHARGES
----------------------
   0 C :   -0.029333
   1 C :   -0.025790
   2 C :   -0.032823
   3 C :   -0.025449
   4 C :   -0.029210
   5 C :   -0.029364
   6 C :   -0.056450
   7 H :    0.022581
   8 H :    0.026514
   9 H :    0.024975
  10 H :    0.025722
  11 H :    0.023080
  12 H :    0.038979
  13 H :    0.033343
  14 H :    0.033226

  Mayer bond orders larger than 0.1
B(  0-C ,  1-C ) :   1.4588 B(  0-C ,  5-C ) :   1.4468 B(  0-C ,  7-H ) :   0.9346
B(  1-C ,  2-C ) :   1.4550 B(  1-C ,  8-H ) :   0.9373 B(  2-C ,  3-C ) :   1.4568
B(  2-C ,  9-H ) :   0.9410 B(  3-C ,  4-C ) :   1.4566 B(  3-C , 10-H ) :   0.9380
B(  4-C ,  5-C ) :   1.4479 B(  4-C , 11-H ) :   0.9327 B(  5-C ,  6-C ) :   1.1039
B(  6-C , 12-H ) :   0.9440 B(  6-C , 13-H ) :   0.9514 B(  6-C , 14-H ) :   0.9512

FINAL SINGLE POINT ENERGY      -271.397293498917

DIPOLE MOMENT
-------------
                                X             Y             Z
Electronic contribution:      3.20616      -0.85529      -0.68884
Nuclear contribution   :     -3.33814       0.89494       0.72761
                        -----------------------------------------
Total Dipole Moment    :     -0.13198       0.03965       0.03876
                        -----------------------------------------
Magnitude (a.u.)       :      0.14315
Magnitude (Debye)      :      0.36386

                             ****ORCA TERMINATED NORMALLY****
TOTAL RUN TIME: 0 days 0 hours 5 minutes 44 seconds 605 msec
