                         Program Version 4.0.1 -  RELEASE  -
|  1> %pal nprocs 2 end
|  2> %maxcore 1000
|  3> ! b3lyp TIGHTSCF
|  4> ! cc-pvdz def2/J RIJCOSX
|  5> ! Opt
|  6>
|  7> %geom
|  8> maxiter 60
|  9> TolE 1e-4
| 10> TolRMSG 2e-3
| 11> TolMaxG 3e-3
| 12> TolRMSD 2e-2
| 13> TolMaxD 3e-2
| 14> end
| 15>
| 16> *xyz 0 1
| 17> C 2.6819 -0.4448 -0.2357
| 18> C 1.6938 -1.2326 0.2055
| 19> C 0.3275 -0.8453 0.4826
| 20> C -0.204 0.3797 0.3516
| 21> C -1.6209 0.7086 0.6964
| 22> H 3.6725 -0.8548 -0.4068
| 23> H 1.9158 -2.2842 0.3847
| 24> H -0.302 -1.6561 0.8487
| 25> H -2.1731 -0.1633 1.061
| 26> H -1.6457 1.4778 1.4743
| 27> H 2.5475 0.6112 -0.4385
| 28> H 0.3951 1.2119 -0.0064
| 29> H -2.1385 1.0953 -0.1868
| 30> *
| 31>
| 32>
| 33>                          ****END OF INPUT****
 Total Charge           Charge          ....    0
 Multiplicity           Mult            ....    1
 Number of Electrons    NEL             ....   38
FINAL SINGLE POINT ENERGY      -195.174835085379
FINAL SINGLE POINT ENERGY      -195.176104985276
FINAL SINGLE POINT ENERGY      -195.176183439221
                    ***********************HURRAY********************

CARTESIAN COORDINATES (ANGSTROEM)
---------------------------------
  C      2.721318   -0.460020   -0.247543
  C      1.718099   -1.233803    0.198956
  C      0.330224   -0.839727    0.495275
  C     -0.218768    0.382261    0.375285
  C     -1.647084    0.714502    0.698398
  H      3.711917   -0.883119   -0.430809
  H      1.939177   -2.292960    0.376214
  H     -0.313175   -1.651198    0.856294
  H     -2.198093   -0.167452    1.062593
  H     -1.710073    1.501299    1.472469
  H      2.595271    0.607509   -0.452394
  H      0.397190    1.215804    0.014047
  H     -2.176104    1.110306   -0.188184

 Multiplicity           Mult            ....    1
 Number of Electrons    NEL             ....   38
 Basis Dimension        Dim             ....  110

ORBITAL ENERGIES
----------------

  NO   OCC          E(Eh)            E(eV)
   0   2.0000     -10.189147      -277.2608
   1   2.0000     -10.188491      -277.2429
   2   2.0000     -10.186467      -277.1878
   3   2.0000     -10.182818      -277.0886
   4   2.0000     -10.178400      -276.9683
   5   2.0000      -0.803834       -21.8734
   6   2.0000      -0.751163       -20.4402
   7   2.0000      -0.676562       -18.4102
   8   2.0000      -0.593369       -16.1464
   9   2.0000      -0.521392       -14.1878
  10   2.0000      -0.472629       -12.8609
  11   2.0000      -0.443161       -12.0590
  12   2.0000      -0.408507       -11.1161
  13   2.0000      -0.399780       -10.8786
  14   2.0000      -0.382955       -10.4207
  15   2.0000      -0.344274        -9.3682
  16   2.0000      -0.341074        -9.2811
  17   2.0000      -0.310024        -8.4362
  18   2.0000      -0.219560        -5.9745
  19   0.0000      -0.028899        -0.7864
  20   0.0000       0.074540         2.0283
  21   0.0000       0.076973         2.0945
  22   0.0000       0.085713         2.3324
  23   0.0000       0.092611         2.5201

MULLIKEN ATOMIC CHARGES
-----------------------
   0 C :    0.025437
   1 C :   -0.037493
   2 C :    0.023717
   3 C :   -0.070964
   4 C :    0.024730
   5 H :    0.013859
   6 H :   -0.022467
   7 H :   -0.033657
   8 H :    0.017340
   9 H :    0.036570
  10 H :    0.012009
  11 H :   -0.024341
  12 H :    0.035261
Sum of atomic charges:    0.0000000

LOEWDIN ATOMIC CHARGES
----------------------
   0 C :   -0.047998
   1 C :   -0.040685
   2 C :   -0.054910
   3 C :   -0.015845
   4 C :   -0.066850
   5 H :    0.025233
   6 H :    0.028943
   7 H :    0.024259
   8 H :    0.031394
   9 H :    0.037681
  10 H :    0.019231
  11 H :    0.021863
  12 H :    0.037682

  Mayer bond orders larger than 0.1
B(  0-C ,  1-C ) :   1.9953 B(  0-C ,  5-H ) :   0.9280 B(  0-C , 10-H ) :   0.9311
B(  1-C ,  2-C ) :   1.1617 B(  1-C ,  6-H ) :   0.9323 B(  2-C ,  3-C ) :   1.8737
B(  2-C ,  7-H ) :   0.9284 B(  3-C ,  4-C ) :   1.1207 B(  3-C , 11-H ) :   0.9381
B(  4-C ,  8-H ) :   0.9610 B(  4-C ,  9-H ) :   0.9485 B(  4-C , 12-H ) :   0.9480

FINAL SINGLE POINT ENERGY      -195.176198364124

DIPOLE MOMENT
-------------
                                X             Y             Z
Electronic contribution:      1.79561      -1.33463      -0.20337
Nuclear contribution   :     -1.98503       1.43839       0.22964
                        -----------------------------------------
Total Dipole Moment    :     -0.18943       0.10377       0.02627
                        -----------------------------------------
Magnitude (a.u.)       :      0.21758
Magnitude (Debye)      :      0.55304

                             ****ORCA TERMINATED NORMALLY****
TOTAL RUN TIME: 0 days 0 hours 6 minutes 29 seconds 79 msec
