                         Program Version 4.0.1 -  RELEASE  -
|  1> %pal nprocs 16 end
|  2> %maxcore 1000
|  3> ! Opt b3lyp TIGHTSCF
|  4> ! cc-pvdz def2/J RIJCOSX
|  5>
|  6>
|  7> *xyz 0 1
|  8> C 0.781219 1.30318 -0.123886
|  9> C 2.099689 0.952529 -0.420476
| 10> C 2.529552 -0.361899 -0.239222
| 11> C 1.633903 -1.321283 0.238811
| 12> C 0.318583 -0.967424 0.535281
| 13> C -0.12328 0.350864 0.358685
| 14> C -1.544416 0.739753 0.68526
| 15> C -2.626598 0.0655 -0.146437
| 16> O -2.457674 -0.838142 -0.930882
| 17> H 0.451985 2.330186 -0.267503
| 18> H 2.788226 1.70682 -0.792207
| 19> H 3.55514 -0.638412 -0.46882
| 20> H 1.960073 -2.348363 0.379793
| 21> H -0.373487 -1.721687 0.899339
| 22> H -1.793359 0.511866 1.735434
| 23> H -1.691794 1.825023 0.592172
| 24> H -3.6473 0.472396 0.040745
| 25> *
| 26>
| 27>
| 28>                          ****END OF INPUT****
 Total Charge           Charge          ....    0
 Multiplicity           Mult            ....    1
 Number of Electrons    NEL             ....   64
FINAL SINGLE POINT ENERGY      -384.666058874808
FINAL SINGLE POINT ENERGY      -384.666221225446
FINAL SINGLE POINT ENERGY      -384.665986069402
FINAL SINGLE POINT ENERGY      -384.666213096624
FINAL SINGLE POINT ENERGY      -384.666205181218
FINAL SINGLE POINT ENERGY      -384.666193883297
FINAL SINGLE POINT ENERGY      -384.666195496136
FINAL SINGLE POINT ENERGY      -384.666207029855
                    ***********************HURRAY********************

CARTESIAN COORDINATES (ANGSTROEM)
---------------------------------
  C      0.780700    1.297042   -0.138759
  C      2.107869    0.954366   -0.416317
  C      2.546776   -0.357829   -0.222351
  C      1.647527   -1.323985    0.241927
  C      0.322536   -0.978486    0.517384
  C     -0.126593    0.339873    0.337599
  C     -1.546024    0.731173    0.671313
  C     -2.652588    0.073849   -0.136727
  O     -2.512533   -0.813480   -0.942041
  H      0.444404    2.325740   -0.296886
  H      2.798808    1.717428   -0.782403
  H      3.582879   -0.630049   -0.437521
  H      1.984101   -2.352144    0.396688
  H     -0.372091   -1.740447    0.877221
  H     -1.786922    0.503789    1.730450
  H     -1.687678    1.823670    0.579333
  H     -3.670708    0.490399    0.097177

 Multiplicity           Mult            ....    1
 Number of Electrons    NEL             ....   64
 Basis Dimension        Dim             ....  166

ORBITAL ENERGIES
----------------

  NO   OCC          E(Eh)            E(eV)
   0   2.0000     -19.143211      -520.9133
   1   2.0000     -10.280235      -279.7394
   2   2.0000     -10.207499      -277.7602
   3   2.0000     -10.199121      -277.5322
   4   2.0000     -10.189659      -277.2747
   5   2.0000     -10.189011      -277.2571
   6   2.0000     -10.188683      -277.2482
   7   2.0000     -10.188041      -277.2307
   8   2.0000     -10.187267      -277.2096
   9   2.0000      -1.050948       -28.5977
  10   2.0000      -0.856935       -23.3184
  11   2.0000      -0.786971       -21.4146
  12   2.0000      -0.743518       -20.2322
  13   2.0000      -0.715728       -19.4760
  14   2.0000      -0.607641       -16.5347
  15   2.0000      -0.604093       -16.4382
  16   2.0000      -0.559831       -15.2338
  17   2.0000      -0.505555       -13.7569
  18   2.0000      -0.481817       -13.1109
  19   2.0000      -0.466128       -12.6840
  20   2.0000      -0.455281       -12.3888
  21   2.0000      -0.434276       -11.8173
  22   2.0000      -0.422627       -11.5003
  23   2.0000      -0.414325       -11.2744
  24   2.0000      -0.402947       -10.9647
  25   2.0000      -0.368053       -10.0152
  26   2.0000      -0.357681        -9.7330
  27   2.0000      -0.343937        -9.3590
  28   2.0000      -0.338254        -9.2044
  29   2.0000      -0.261349        -7.1117
  30   2.0000      -0.249664        -6.7937
  31   2.0000      -0.242732        -6.6051
  32   0.0000      -0.022457        -0.6111
  33   0.0000      -0.009075        -0.2469
  34   0.0000      -0.003296        -0.0897
  35   0.0000       0.057165         1.5555
  36   0.0000       0.074281         2.0213

MULLIKEN ATOMIC CHARGES
-----------------------
   0 C :    0.025760
   1 C :    0.036333
   2 C :    0.035402
   3 C :    0.042366
   4 C :    0.043124
   5 C :   -0.030368
   6 C :   -0.009845
   7 C :    0.155879
   8 O :   -0.175979
   9 H :   -0.047136
  10 H :   -0.028796
  11 H :   -0.032310
  12 H :   -0.030380
  13 H :   -0.044561
  14 H :    0.050155
  15 H :    0.030262
  16 H :   -0.019906
Sum of atomic charges:   -0.0000000

LOEWDIN ATOMIC CHARGES
----------------------
   0 C :   -0.025313
   1 C :   -0.025708
   2 C :   -0.025979
   3 C :   -0.022353
   4 C :   -0.013825
   5 C :   -0.026546
   6 C :   -0.068920
   7 C :   -0.022195
   8 O :    0.005959
   9 H :    0.022922
  10 H :    0.027571
  11 H :    0.026586
  12 H :    0.027479
  13 H :    0.025596
  14 H :    0.054191
  15 H :    0.046738
  16 H :   -0.006204

  Mayer bond orders larger than 0.1
B(  0-C ,  1-C ) :   1.4546 B(  0-C ,  5-C ) :   1.4547 B(  0-C ,  9-H ) :   0.9297
B(  1-C ,  2-C ) :   1.4615 B(  1-C , 10-H ) :   0.9366 B(  2-C ,  3-C ) :   1.4480
B(  2-C , 11-H ) :   0.9414 B(  3-C ,  4-C ) :   1.4629 B(  3-C , 12-H ) :   0.9380
B(  4-C ,  5-C ) :   1.4346 B(  4-C , 13-H ) :   0.9351 B(  5-C ,  6-C ) :   1.0621
B(  6-C ,  7-C ) :   0.9914 B(  6-C , 14-H ) :   0.9027 B(  6-C , 15-H ) :   0.9128
B(  7-C ,  8-O ) :   2.2459 B(  7-C , 16-H ) :   0.9095

FINAL SINGLE POINT ENERGY      -384.666210644463

DIPOLE MOMENT
-------------
                                X             Y             Z
Electronic contribution:     -1.23160      -1.50131      -1.52871
Nuclear contribution   :      1.29454       2.12054       2.18108
                        -----------------------------------------
Total Dipole Moment    :      0.06294       0.61923       0.65237
                        -----------------------------------------
Magnitude (a.u.)       :      0.90166
Magnitude (Debye)      :      2.29184

                             ****ORCA TERMINATED NORMALLY****
TOTAL RUN TIME: 0 days 0 hours 7 minutes 29 seconds 533 msec
